! Touchstone simulation data from EMX version 2024.1.0
! Fri Oct 31 12:32:23 2025
[Version] 2.0
# Hz S RI R 50
[Number of Ports] 4
[Number of Frequencies] 2001
[Matrix Format] Lower
[Network Data]
0.000000e+00 3.055512e-03 0.000000e+00
 9.969445e-01 0.000000e+00 3.055512e-03 0.000000e+00
 5.413342e-18 0.000000e+00 5.645734e-18 0.000000e+00 3.493835e-03 0.000000e+00
 5.680292e-18 0.000000e+00 5.362285e-18 0.000000e+00 9.965062e-01 0.000000e+00 3.493835e-03 0.000000e+00
1.000000e+08 3.081095e-03 -5.565093e-04
 9.968662e-01 -5.312997e-03 3.082521e-03 -5.532665e-04
 -3.125819e-05 1.307666e-04 3.109503e-05 1.901002e-03 3.533703e-03 5.001514e-04
 3.116542e-05 1.900373e-03 -3.067766e-05 1.315850e-04 9.964496e-01 -4.332167e-03 3.533967e-03 4.998468e-04
2.000000e+08 3.061173e-03 -1.138277e-03
 9.967308e-01 -1.058640e-02 3.066917e-03 -1.137878e-03
 -5.415968e-05 2.841357e-04 5.608189e-05 3.783626e-03 3.569259e-03 9.712950e-04
 5.445723e-05 3.782942e-03 -5.297991e-05 2.838565e-04 9.963654e-01 -8.632953e-03 3.568436e-03 9.704530e-04
3.000000e+08 3.028528e-03 -1.711856e-03
 9.965132e-01 -1.585017e-02 3.032992e-03 -1.716941e-03
 -8.651420e-05 4.364342e-04 9.337950e-05 5.670744e-03 3.619890e-03 1.436783e-03
 9.145167e-05 5.672730e-03 -8.593649e-05 4.356248e-04 9.962342e-01 -1.292592e-02 3.618398e-03 1.437615e-03
4.000000e+08 2.984130e-03 -2.298864e-03
 9.962155e-01 -2.108310e-02 2.983383e-03 -2.304556e-03
 -1.309273e-04 5.979676e-04 1.459218e-04 7.554841e-03 3.681943e-03 1.886025e-03
 1.464698e-04 7.557562e-03 -1.309468e-04 5.972587e-04 9.960595e-01 -1.719845e-02 3.681839e-03 1.887571e-03
5.000000e+08 2.912486e-03 -2.898061e-03
 9.958529e-01 -2.628296e-02 2.909337e-03 -2.900825e-03
 -1.809891e-04 7.689215e-04 2.100319e-04 9.436226e-03 3.747880e-03 2.321348e-03
 2.119910e-04 9.437766e-03 -1.811896e-04 7.686142e-04 9.958508e-01 -2.145237e-02 3.748661e-03 2.322434e-03
6.000000e+08 2.810285e-03 -3.502405e-03
 9.954318e-01 -3.145245e-02 2.807604e-03 -3.502579e-03
 -2.352470e-04 9.486053e-04 2.855374e-04 1.131526e-02 3.816422e-03 2.744616e-03
 2.876090e-04 1.131542e-02 -2.353534e-04 9.484679e-04 9.956098e-01 -2.568962e-02 3.817475e-03 2.745014e-03
7.000000e+08 2.677510e-03 -4.106966e-03
 9.949560e-01 -3.659397e-02 2.676224e-03 -4.106254e-03
 -2.915748e-04 1.135935e-03 3.711458e-04 1.319257e-02 3.885346e-03 3.156539e-03
 3.726022e-04 1.319197e-02 -2.916932e-04 1.135827e-03 9.953392e-01 -2.991083e-02 3.886220e-03 3.156457e-03
8.000000e+08 2.515438e-03 -4.709112e-03
 9.944271e-01 -4.170877e-02 2.515052e-03 -4.708577e-03
 -3.495303e-04 1.329263e-03 4.666915e-04 1.506964e-02 3.952934e-03 3.558924e-03
 4.675692e-04 1.506892e-02 -3.497143e-04 1.329256e-03 9.950410e-01 -3.411763e-02 3.953568e-03 3.558685e-03
9.000000e+08 2.324493e-03 -5.307376e-03
 9.938470e-01 -4.679692e-02 2.324385e-03 -5.307205e-03
 -4.093343e-04 1.528024e-03 5.727680e-04 1.694728e-02 4.018604e-03 3.953371e-03
 5.733320e-04 1.694664e-02 -4.095286e-04 1.528166e-03 9.947158e-01 -3.831126e-02 4.019117e-03 3.953109e-03
1.000000e+09 2.104643e-03 -5.900004e-03
 9.932176e-01 -5.185841e-02 2.104486e-03 -5.900026e-03
 -4.708953e-04 1.732150e-03 6.898404e-04 1.882578e-02 4.082058e-03 4.340908e-03
 6.902529e-04 1.882523e-02 -4.710447e-04 1.732430e-03 9.943644e-01 -4.249235e-02 4.082540e-03 4.340616e-03
1.100000e+09 1.856093e-03 -6.484930e-03
 9.925406e-01 -5.689336e-02 1.855817e-03 -6.484917e-03
 -5.339251e-04 1.941581e-03 8.182026e-04 2.070536e-02 4.142966e-03 4.722337e-03
 8.185050e-04 2.070484e-02 -5.340033e-04 1.941980e-03 9.939874e-01 -4.666134e-02 4.143435e-03 4.721971e-03
1.200000e+09 1.579433e-03 -7.060063e-03
 9.918177e-01 -6.190190e-02 1.579146e-03 -7.059842e-03
 -5.981200e-04 2.156218e-03 9.580996e-04 2.258621e-02 4.201013e-03 5.098422e-03
 9.582796e-04 2.258573e-02 -5.981072e-04 2.156729e-03 9.935854e-01 -5.081867e-02 4.201447e-03 5.097957e-03
1.300000e+09 1.275576e-03 -7.623448e-03
 9.910501e-01 -6.688403e-02 1.275499e-03 -7.622985e-03
 -6.632051e-04 2.375960e-03 1.109773e-03 2.446855e-02 4.255963e-03 5.469923e-03
 1.109826e-03 2.446815e-02 -6.630631e-04 2.376582e-03 9.931590e-01 -5.496475e-02 4.256330e-03 5.469359e-03
1.400000e+09 9.456552e-04 -8.173330e-03
 9.902391e-01 -7.183959e-02 9.459948e-04 -8.172794e-03
 -7.289220e-04 2.600730e-03 1.273474e-03 2.635259e-02 4.307687e-03 5.837574e-03
 1.273434e-03 2.635233e-02 -7.285935e-04 2.601435e-03 9.927086e-01 -5.909995e-02 4.307962e-03 5.836927e-03
1.500000e+09 5.909313e-04 -8.708164e-03
 9.893860e-01 -7.676829e-02 5.917137e-04 -8.707851e-03
 -7.950225e-04 2.830462e-03 1.449490e-03 2.823854e-02 4.356152e-03 6.202056e-03
 1.449428e-03 2.823846e-02 -7.944628e-04 2.831181e-03 9.922346e-01 -6.322458e-02 4.356319e-03 6.201344e-03
1.600000e+09 2.127301e-04 -9.226564e-03
 9.884919e-01 -8.166982e-02 2.137719e-04 -9.226708e-03
 -8.612752e-04 3.065103e-03 1.638176e-03 3.012660e-02 4.401399e-03 6.563980e-03
 1.638160e-03 3.012668e-02 -8.604834e-04 3.065746e-03 9.917373e-01 -6.733889e-02 4.401446e-03 6.563225e-03
1.700000e+09 -1.875622e-04 -9.727275e-03
 9.875582e-01 -8.654388e-02 -1.865226e-04 -9.727937e-03
 -9.274584e-04 3.304624e-03 1.839918e-03 3.201688e-02 4.443505e-03 6.923895e-03
 1.839993e-03 3.201709e-02 -9.264775e-04 3.305114e-03 9.912169e-01 -7.144306e-02 4.443428e-03 6.923120e-03
1.800000e+09 -6.085350e-04 -1.020926e-02
 9.865860e-01 -9.139025e-02 -6.077079e-04 -1.021035e-02
 -9.933536e-04 3.548994e-03 2.055082e-03 3.390941e-02 4.482579e-03 7.282284e-03
 2.055275e-03 3.390972e-02 -9.922507e-04 3.549284e-03 9.906737e-01 -7.553725e-02 4.482379e-03 7.281510e-03
1.900000e+09 -1.048800e-03 -1.067174e-02
 9.855764e-01 -9.620877e-02 -1.048300e-03 -1.067313e-02
 -1.058748e-03 3.798155e-03 2.283991e-03 3.580415e-02 4.518748e-03 7.639554e-03
 2.284321e-03 3.580454e-02 -1.057597e-03 3.798231e-03 9.901079e-01 -7.962161e-02 4.518431e-03 7.638797e-03
2.000000e+09 -1.506976e-03 -1.111410e-02
 9.845305e-01 -1.009993e-01 -1.506832e-03 -1.111564e-02
 -1.123431e-03 4.052038e-03 2.526941e-03 3.770104e-02 4.552160e-03 7.996063e-03
 2.527431e-03 3.770148e-02 -1.122300e-03 4.051911e-03 9.895197e-01 -8.369626e-02 4.551734e-03 7.995333e-03
2.100000e+09 -1.981699e-03 -1.153586e-02
 9.834493e-01 -1.057619e-01 -1.981886e-03 -1.153745e-02
 -1.187199e-03 4.310563e-03 2.784217e-03 3.960001e-02 4.582980e-03 8.352121e-03
 2.784890e-03 3.960048e-02 -1.186143e-03 4.310268e-03 9.889093e-01 -8.776131e-02 4.582447e-03 8.351422e-03
2.200000e+09 -2.471623e-03 -1.193665e-02
 9.823340e-01 -1.104962e-01 -2.472089e-03 -1.193822e-02
 -1.249859e-03 4.573645e-03 3.056093e-03 4.150095e-02 4.611382e-03 8.707994e-03
 3.056973e-03 4.150141e-02 -1.248916e-03 4.573231e-03 9.882768e-01 -9.181682e-02 4.610736e-03 8.707332e-03
2.300000e+09 -2.975433e-03 -1.231623e-02
 9.811857e-01 -1.152024e-01 -2.976121e-03 -1.231776e-02
 -1.311231e-03 4.841195e-03 3.342841e-03 4.340376e-02 4.637541e-03 9.063907e-03
 3.343944e-03 4.340417e-02 -1.310413e-03 4.840718e-03 9.876224e-01 -9.586286e-02 4.636773e-03 9.063294e-03
2.400000e+09 -3.491845e-03 -1.267446e-02
 9.800052e-01 -1.198804e-01 -3.492709e-03 -1.267593e-02
 -1.371139e-03 5.113127e-03 3.644722e-03 4.530830e-02 4.661628e-03 9.420053e-03
 3.646053e-03 4.530860e-02 -1.370441e-03 5.112638e-03 9.869462e-01 -9.989946e-02 4.660726e-03 9.419507e-03
2.500000e+09 -4.019621e-03 -1.301130e-02
 9.787938e-01 -1.245303e-01 -4.020633e-03 -1.301273e-02
 -1.429412e-03 5.389350e-03 3.961988e-03 4.721442e-02 4.683808e-03 9.776594e-03
 3.963536e-03 4.721454e-02 -1.428810e-03 5.388893e-03 9.862485e-01 -1.039267e-01 4.682769e-03 9.776145e-03
2.600000e+09 -4.557570e-03 -1.332678e-02
 9.775524e-01 -1.291521e-01 -4.558721e-03 -1.332821e-02
 -1.485881e-03 5.669774e-03 4.294877e-03 4.912192e-02 4.704241e-03 1.013368e-02
 4.296613e-03 4.912181e-02 -1.485340e-03 5.669378e-03 9.855294e-01 -1.079445e-01 4.703069e-03 1.013336e-02
2.700000e+09 -5.104559e-03 -1.362104e-02
 9.762819e-01 -1.337459e-01 -5.105855e-03 -1.362249e-02
 -1.540381e-03 5.954300e-03 4.643612e-03 5.103062e-02 4.723086e-03 1.049142e-02
 4.645490e-03 5.103023e-02 -1.539862e-03 5.953980e-03 9.847890e-01 -1.119530e-01 4.721796e-03 1.049127e-02
2.800000e+09 -5.659508e-03 -1.389427e-02
 9.749835e-01 -1.383119e-01 -5.660971e-03 -1.389575e-02
 -1.592747e-03 6.242825e-03 5.008398e-03 5.294031e-02 4.740498e-03 1.084995e-02
 5.010361e-03 5.293960e-02 -1.592211e-03 6.242581e-03 9.840275e-01 -1.159521e-01 4.739115e-03 1.084998e-02
2.900000e+09 -6.221394e-03 -1.414672e-02
 9.736581e-01 -1.428504e-01 -6.223054e-03 -1.414824e-02
 -1.642822e-03 6.535236e-03 5.389422e-03 5.485075e-02 4.756633e-03 1.120935e-02
 5.391403e-03 5.484970e-02 -1.642236e-03 6.535057e-03 9.832450e-01 -1.199419e-01 4.755190e-03 1.120959e-02
3.000000e+09 -6.789248e-03 -1.437868e-02
 9.723065e-01 -1.473615e-01 -6.791140e-03 -1.438023e-02
 -1.690452e-03 6.831413e-03 5.786851e-03 5.676172e-02 4.771648e-03 1.156970e-02
 5.788783e-03 5.676032e-02 -1.689791e-03 6.831281e-03 9.824417e-01 -1.239224e-01 4.770180e-03 1.157017e-02
3.100000e+09 -7.362155e-03 -1.459049e-02
 9.709296e-01 -1.518455e-01 -7.364314e-03 -1.459207e-02
 -1.735492e-03 7.131228e-03 6.200837e-03 5.867297e-02 4.785702e-03 1.193108e-02
 6.202653e-03 5.867124e-02 -1.734739e-03 7.131121e-03 9.816178e-01 -1.278936e-01 4.784243e-03 1.193176e-02
3.200000e+09 -7.939249e-03 -1.478254e-02
 9.695285e-01 -1.563029e-01 -7.941705e-03 -1.478411e-02
 -1.777808e-03 7.434546e-03 6.631513e-03 6.058425e-02 4.798951e-03 1.229351e-02
 6.633154e-03 6.058222e-02 -1.776951e-03 7.434442e-03 9.807733e-01 -1.318555e-01 4.797531e-03 1.229442e-02
3.300000e+09 -8.519716e-03 -1.495522e-02
 9.681038e-01 -1.607338e-01 -8.522492e-03 -1.495675e-02
 -1.817272e-03 7.741229e-03 7.078998e-03 6.249533e-02 4.811546e-03 1.265705e-02
 7.080414e-03 6.249303e-02 -1.816309e-03 7.741106e-03 9.799085e-01 -1.358081e-01 4.810194e-03 1.265817e-02
3.400000e+09 -9.102812e-03 -1.510890e-02
 9.666563e-01 -1.651386e-01 -9.105923e-03 -1.511034e-02
 -1.853773e-03 8.051149e-03 7.543392e-03 6.440596e-02 4.823628e-03 1.302173e-02
 7.544543e-03 6.440343e-02 -1.852702e-03 8.050989e-03 9.790234e-01 -1.397515e-01 4.822365e-03 1.302304e-02
3.500000e+09 -9.687844e-03 -1.524391e-02
 9.651867e-01 -1.695176e-01 -9.691294e-03 -1.524522e-02
 -1.887212e-03 8.364187e-03 8.024784e-03 6.631594e-02 4.835324e-03 1.338757e-02
 8.025640e-03 6.631323e-02 -1.886035e-03 8.363974e-03 9.781182e-01 -1.436855e-01 4.834168e-03 1.338906e-02
3.600000e+09 -1.027416e-02 -1.536060e-02
 9.636958e-01 -1.738711e-01 -1.027795e-02 -1.536174e-02
 -1.917497e-03 8.680220e-03 8.523251e-03 6.822503e-02 4.846756e-03 1.375460e-02
 8.523792e-03 6.822219e-02 -1.916218e-03 8.679940e-03 9.771930e-01 -1.476102e-01 4.845722e-03 1.375626e-02
3.700000e+09 -1.086114e-02 -1.545934e-02
 9.621842e-01 -1.781994e-01 -1.086526e-02 -1.546027e-02
 -1.944547e-03 8.999127e-03 9.038862e-03 7.013301e-02 4.858039e-03 1.412282e-02
 9.039075e-03 7.013009e-02 -1.943167e-03 8.998769e-03 9.762478e-01 -1.515255e-01 4.857140e-03 1.412464e-02
3.800000e+09 -1.144821e-02 -1.554050e-02
 9.606525e-01 -1.825028e-01 -1.145264e-02 -1.554119e-02
 -1.968286e-03 9.320789e-03 9.571675e-03 7.203967e-02 4.869283e-03 1.449226e-02
 9.571557e-03 7.203670e-02 -1.966808e-03 9.320341e-03 9.752829e-01 -1.554314e-01 4.868529e-03 1.449422e-02
3.900000e+09 -1.203483e-02 -1.560445e-02
 9.591013e-01 -1.867817e-01 -1.203955e-02 -1.560486e-02
 -1.988648e-03 9.645086e-03 1.012174e-02 7.394477e-02 4.880591e-03 1.486292e-02
 1.012129e-02 7.394182e-02 -1.987075e-03 9.644538e-03 9.742983e-01 -1.593278e-01 4.879989e-03 1.486499e-02
4.000000e+09 -1.262048e-02 -1.565160e-02
 9.575311e-01 -1.910364e-01 -1.262546e-02 -1.565170e-02
 -2.005573e-03 9.971901e-03 1.068911e-02 7.584811e-02 4.892060e-03 1.523478e-02
 1.068834e-02 7.584521e-02 -2.003905e-03 9.971241e-03 9.732941e-01 -1.632148e-01 4.891616e-03 1.523696e-02
4.100000e+09 -1.320468e-02 -1.568232e-02
 9.559424e-01 -1.952673e-01 -1.320991e-02 -1.568208e-02
 -2.019006e-03 1.030112e-02 1.127380e-02 7.774946e-02 4.903781e-03 1.560784e-02
 1.127272e-02 7.774665e-02 -2.017246e-03 1.030034e-02 9.722705e-01 -1.670922e-01 4.903499e-03 1.561012e-02
4.200000e+09 -1.378699e-02 -1.569701e-02
 9.543359e-01 -1.994746e-01 -1.379243e-02 -1.569642e-02
 -2.028900e-03 1.063263e-02 1.187584e-02 7.964860e-02 4.915843e-03 1.598210e-02
 1.187447e-02 7.964591e-02 -2.027050e-03 1.063171e-02 9.712276e-01 -1.709601e-01 4.915723e-03 1.598446e-02
4.300000e+09 -1.436699e-02 -1.569607e-02
 9.527118e-01 -2.036589e-01 -1.437261e-02 -1.569511e-02
 -2.035213e-03 1.096631e-02 1.249526e-02 8.154532e-02 4.928326e-03 1.635754e-02
 1.249362e-02 8.154280e-02 -2.033276e-03 1.096524e-02 9.701655e-01 -1.748184e-01 4.928367e-03 1.635996e-02
4.400000e+09 -1.494428e-02 -1.567990e-02
 9.510707e-01 -2.078203e-01 -1.495005e-02 -1.567855e-02
 -2.037907e-03 1.130206e-02 1.313206e-02 8.343940e-02 4.941308e-03 1.673414e-02
 1.313017e-02 8.343707e-02 -2.035889e-03 1.130083e-02 9.690842e-01 -1.786670e-01 4.941508e-03 1.673661e-02
4.500000e+09 -1.551851e-02 -1.564889e-02
 9.494129e-01 -2.119593e-01 -1.552440e-02 -1.564714e-02
 -2.036950e-03 1.163978e-02 1.378624e-02 8.533063e-02 4.954862e-03 1.711189e-02
 1.378413e-02 8.532852e-02 -2.034857e-03 1.163836e-02 9.679840e-01 -1.825060e-01 4.955215e-03 1.711441e-02
4.600000e+09 -1.608933e-02 -1.560345e-02
 9.477388e-01 -2.160762e-01 -1.609530e-02 -1.560129e-02
 -2.032316e-03 1.197934e-02 1.445781e-02 8.721881e-02 4.969058e-03 1.749076e-02
 1.445551e-02 8.721694e-02 -2.030156e-03 1.197773e-02 9.668648e-01 -1.863352e-01 4.969557e-03 1.749332e-02
4.700000e+09 -1.665644e-02 -1.554397e-02
 9.460488e-01 -2.201714e-01 -1.666246e-02 -1.554140e-02
 -2.023982e-03 1.232066e-02 1.514674e-02 8.910373e-02 4.983959e-03 1.787074e-02
 1.514428e-02 8.910211e-02 -2.021765e-03 1.231883e-02 9.657269e-01 -1.901547e-01 4.984597e-03 1.787333e-02
4.800000e+09 -1.721954e-02 -1.547084e-02
 9.443432e-01 -2.242451e-01 -1.722558e-02 -1.546785e-02
 -2.011928e-03 1.266363e-02 1.585303e-02 9.098519e-02 4.999628e-03 1.825181e-02
 1.585044e-02 9.098384e-02 -2.009670e-03 1.266157e-02 9.645703e-01 -1.939645e-01 5.000397e-03 1.825442e-02
4.900000e+09 -1.777836e-02 -1.538445e-02
 9.426223e-01 -2.282978e-01 -1.778439e-02 -1.538106e-02
 -1.996142e-03 1.300816e-02 1.657665e-02 9.286298e-02 5.016124e-03 1.863393e-02
 1.657396e-02 9.286191e-02 -1.993858e-03 1.300584e-02 9.633952e-01 -1.977644e-01 5.017017e-03 1.863657e-02
5.000000e+09 -1.833268e-02 -1.528519e-02
 9.408863e-01 -2.323298e-01 -1.833865e-02 -1.528140e-02
 -1.976612e-03 1.335414e-02 1.731758e-02 9.473692e-02 5.033501e-03 1.901708e-02
 1.731481e-02 9.473613e-02 -1.974323e-03 1.335156e-02 9.622015e-01 -2.015545e-01 5.034512e-03 1.901975e-02
5.100000e+09 -1.888226e-02 -1.517345e-02
 9.391356e-01 -2.363413e-01 -1.888814e-02 -1.516926e-02
 -1.953332e-03 1.370148e-02 1.807578e-02 9.660681e-02 5.051813e-03 1.940123e-02
 1.807298e-02 9.660629e-02 -1.951060e-03 1.369862e-02 9.609895e-01 -2.053346e-01 5.052937e-03 1.940395e-02
5.200000e+09 -1.942689e-02 -1.504959e-02
 9.373703e-01 -2.403328e-01 -1.943266e-02 -1.504502e-02
 -1.926298e-03 1.405010e-02 1.885122e-02 9.847245e-02 5.071110e-03 1.978637e-02
 1.884841e-02 9.847222e-02 -1.924070e-03 1.404695e-02 9.597593e-01 -2.091049e-01 5.072346e-03 1.978914e-02
5.300000e+09 -1.996641e-02 -1.491400e-02
 9.355907e-01 -2.443045e-01 -1.997203e-02 -1.490905e-02
 -1.895511e-03 1.439990e-02 1.964387e-02 1.003337e-01 5.091440e-03 2.017246e-02
 1.964106e-02 1.003337e-01 -1.893354e-03 1.439645e-02 9.585108e-01 -2.128653e-01 5.092789e-03 2.017528e-02
5.400000e+09 -2.050063e-02 -1.476702e-02
 9.337970e-01 -2.482567e-01 -2.050607e-02 -1.476173e-02
 -1.860973e-03 1.475080e-02 2.045367e-02 1.021903e-01 5.112848e-03 2.055947e-02
 2.045090e-02 1.021906e-01 -1.858920e-03 1.474704e-02 9.572443e-01 -2.166156e-01 5.114318e-03 2.056236e-02
5.500000e+09 -2.102941e-02 -1.460903e-02
 9.319894e-01 -2.521898e-01 -2.103465e-02 -1.460342e-02
 -1.822690e-03 1.510271e-02 2.128059e-02 1.040421e-01 5.135380e-03 2.094737e-02
 2.127788e-02 1.040427e-01 -1.820775e-03 1.509865e-02 9.559597e-01 -2.203560e-01 5.136980e-03 2.095035e-02
5.600000e+09 -2.155262e-02 -1.444038e-02
 9.301680e-01 -2.561039e-01 -2.155762e-02 -1.443447e-02
 -1.780672e-03 1.545556e-02 2.212457e-02 1.058890e-01 5.159076e-03 2.133613e-02
 2.212193e-02 1.058898e-01 -1.778928e-03 1.545119e-02 9.546573e-01 -2.240863e-01 5.160821e-03 2.133920e-02
5.700000e+09 -2.207013e-02 -1.426141e-02
 9.283330e-01 -2.599995e-01 -2.207489e-02 -1.425523e-02
 -1.734929e-03 1.580926e-02 2.298556e-02 1.077307e-01 5.183977e-03 2.172572e-02
 2.298301e-02 1.077318e-01 -1.733391e-03 1.580461e-02 9.533370e-01 -2.278065e-01 5.185886e-03 2.172888e-02
5.800000e+09 -2.258185e-02 -1.407245e-02
 9.264846e-01 -2.638767e-01 -2.258633e-02 -1.406605e-02
 -1.685475e-03 1.616375e-02 2.386350e-02 1.095671e-01 5.210122e-03 2.211610e-02
 2.386106e-02 1.095684e-01 -1.684178e-03 1.615881e-02 9.519990e-01 -2.315166e-01 5.212217e-03 2.211937e-02
5.900000e+09 -2.308768e-02 -1.387385e-02
 9.246227e-01 -2.677358e-01 -2.309188e-02 -1.386724e-02
 -1.632325e-03 1.651894e-02 2.475834e-02 1.113980e-01 5.237549e-03 2.250724e-02
 2.475602e-02 1.113995e-01 -1.631301e-03 1.651375e-02 9.506433e-01 -2.352166e-01 5.239853e-03 2.251061e-02
6.000000e+09 -2.358754e-02 -1.366592e-02
 9.227477e-01 -2.715771e-01 -2.359144e-02 -1.365915e-02
 -1.575498e-03 1.687478e-02 2.567001e-02 1.132233e-01 5.266291e-03 2.289911e-02
 2.566782e-02 1.132250e-01 -1.574777e-03 1.686935e-02 9.492699e-01 -2.389064e-01 5.268831e-03 2.290257e-02
6.100000e+09 -2.408137e-02 -1.344898e-02
 9.208596e-01 -2.754009e-01 -2.408497e-02 -1.344208e-02
 -1.515011e-03 1.723119e-02 2.659846e-02 1.150428e-01 5.296382e-03 2.329166e-02
 2.659641e-02 1.150447e-01 -1.514620e-03 1.722556e-02 9.478791e-01 -2.425859e-01 5.299184e-03 2.329521e-02
6.200000e+09 -2.456911e-02 -1.322334e-02
 9.189584e-01 -2.792073e-01 -2.457241e-02 -1.321634e-02
 -1.450886e-03 1.758812e-02 2.754361e-02 1.168563e-01 5.327853e-03 2.368487e-02
 2.754170e-02 1.168584e-01 -1.450848e-03 1.758231e-02 9.464709e-01 -2.462553e-01 5.330943e-03 2.368847e-02
6.300000e+09 -2.505072e-02 -1.298930e-02
 9.170442e-01 -2.829966e-01 -2.505372e-02 -1.298225e-02
 -1.383145e-03 1.794549e-02 2.850539e-02 1.186637e-01 5.360733e-03 2.407868e-02
 2.850364e-02 1.186660e-01 -1.383476e-03 1.793955e-02 9.450452e-01 -2.499143e-01 5.364132e-03 2.408232e-02
6.400000e+09 -2.552616e-02 -1.274716e-02
 9.151172e-01 -2.867690e-01 -2.552887e-02 -1.274008e-02
 -1.311810e-03 1.830326e-02 2.948374e-02 1.204649e-01 5.395048e-03 2.447305e-02
 2.948215e-02 1.204673e-01 -1.312524e-03 1.829722e-02 9.436023e-01 -2.535629e-01 5.398776e-03 2.447670e-02
6.500000e+09 -2.599541e-02 -1.249719e-02
 9.131774e-01 -2.905248e-01 -2.599784e-02 -1.249013e-02
 -1.236906e-03 1.866137e-02 3.047857e-02 1.222596e-01 5.430823e-03 2.486796e-02
 3.047717e-02 1.222622e-01 -1.238008e-03 1.865527e-02 9.421421e-01 -2.572012e-01 5.434893e-03 2.487158e-02
6.600000e+09 -2.645846e-02 -1.223969e-02
 9.112248e-01 -2.942640e-01 -2.646061e-02 -1.223266e-02
 -1.158457e-03 1.901976e-02 3.148983e-02 1.240477e-01 5.468079e-03 2.526334e-02
 3.148861e-02 1.240505e-01 -1.159948e-03 1.901364e-02 9.406649e-01 -2.608291e-01 5.472499e-03 2.526691e-02
6.700000e+09 -2.691528e-02 -1.197492e-02
 9.092595e-01 -2.979870e-01 -2.691719e-02 -1.196796e-02
 -1.076489e-03 1.937839e-02 3.251742e-02 1.258292e-01 5.506835e-03 2.565916e-02
 3.251640e-02 1.258321e-01 -1.078363e-03 1.937228e-02 9.391705e-01 -2.644465e-01 5.511608e-03 2.566263e-02
6.800000e+09 -2.736590e-02 -1.170315e-02
 9.072815e-01 -3.016939e-01 -2.736757e-02 -1.169629e-02
 -9.910253e-04 1.973720e-02 3.356128e-02 1.276037e-01 5.547109e-03 2.605538e-02
 3.356046e-02 1.276068e-01 -9.932744e-04 1.973115e-02 9.376591e-01 -2.680534e-01 5.552232e-03 2.605871e-02
6.900000e+09 -2.781030e-02 -1.142463e-02
 9.052909e-01 -3.053849e-01 -2.781176e-02 -1.141789e-02
 -9.020933e-04 2.009616e-02 3.462133e-02 1.293713e-01 5.588914e-03 2.645194e-02
 3.462073e-02 1.293746e-01 -9.047030e-04 2.009020e-02 9.361308e-01 -2.716497e-01 5.594377e-03 2.645511e-02
7.000000e+09 -2.824851e-02 -1.113962e-02
 9.032877e-01 -3.090602e-01 -2.824978e-02 -1.113301e-02
 -8.097186e-04 2.045522e-02 3.569749e-02 1.311318e-01 5.632263e-03 2.684881e-02
 3.569711e-02 1.311352e-01 -8.126710e-04 2.044938e-02 9.345857e-01 -2.752355e-01 5.638051e-03 2.685177e-02
7.100000e+09 -2.868055e-02 -1.084835e-02
 9.012719e-01 -3.127199e-01 -2.868165e-02 -1.084190e-02
 -7.139269e-04 2.081434e-02 3.678967e-02 1.328850e-01 5.677165e-03 2.724595e-02
 3.678953e-02 1.328886e-01 -7.172012e-04 2.080865e-02 9.330238e-01 -2.788106e-01 5.683259e-03 2.724866e-02
7.200000e+09 -2.910643e-02 -1.055107e-02
 8.992435e-01 -3.163642e-01 -2.910739e-02 -1.054479e-02
 -6.147443e-04 2.117348e-02 3.789781e-02 1.346309e-01 5.723630e-03 2.764330e-02
 3.789792e-02 1.346345e-01 -6.183170e-04 2.116796e-02 9.314451e-01 -2.823751e-01 5.730004e-03 2.764574e-02
7.300000e+09 -2.952621e-02 -1.024800e-02
 8.972026e-01 -3.199932e-01 -2.952705e-02 -1.024190e-02
 -5.121965e-04 2.153261e-02 3.902181e-02 1.363692e-01 5.771662e-03 2.804082e-02
 3.902218e-02 1.363730e-01 -5.160425e-04 2.152727e-02 9.298498e-01 -2.859288e-01 5.778289e-03 2.804297e-02
7.400000e+09 -2.993990e-02 -9.939372e-03
 8.951491e-01 -3.236070e-01 -2.994064e-02 -9.933456e-03
 -4.063089e-04 2.189168e-02 4.016161e-02 1.381000e-01 5.821267e-03 2.843848e-02
 4.016224e-02 1.381038e-01 -4.104022e-04 2.188655e-02 9.282380e-01 -2.894718e-01 5.828115e-03 2.844031e-02
7.500000e+09 -3.034755e-02 -9.625393e-03
 8.930831e-01 -3.272059e-01 -3.034823e-02 -9.619673e-03
 -2.971070e-04 2.225067e-02 4.131712e-02 1.398229e-01 5.872446e-03 2.883622e-02
 4.131803e-02 1.398268e-01 -3.014206e-04 2.224576e-02 9.266096e-01 -2.930040e-01 5.879483e-03 2.883771e-02
7.600000e+09 -3.074922e-02 -9.306276e-03
 8.910045e-01 -3.307899e-01 -3.074985e-02 -9.300756e-03
 -1.846156e-04 2.260955e-02 4.248825e-02 1.415380e-01 5.925202e-03 2.923400e-02
 4.248945e-02 1.415419e-01 -1.891228e-04 2.260486e-02 9.249648e-01 -2.965254e-01 5.932393e-03 2.923515e-02
7.700000e+09 -3.114495e-02 -8.982224e-03
 8.889134e-01 -3.343592e-01 -3.114555e-02 -8.976907e-03
 -6.885933e-05 2.296828e-02 4.367494e-02 1.432451e-01 5.979533e-03 2.963178e-02
 4.367642e-02 1.432491e-01 -7.353365e-05 2.296382e-02 9.233036e-01 -3.000360e-01 5.986843e-03 2.963258e-02
7.800000e+09 -3.153479e-02 -8.653436e-03
 8.868097e-01 -3.379139e-01 -3.153539e-02 -8.648322e-03
 5.013777e-05 2.332684e-02 4.487710e-02 1.449442e-01 6.035437e-03 3.002952e-02
 4.487887e-02 1.449481e-01 4.532206e-05 2.332261e-02 9.216261e-01 -3.035356e-01 6.042832e-03 3.002996e-02
7.900000e+09 -3.191880e-02 -8.320101e-03
 8.846935e-01 -3.414540e-01 -3.191942e-02 -8.315190e-03
 1.723521e-04 2.368519e-02 4.609465e-02 1.466350e-01 6.092911e-03 3.042717e-02
 4.609672e-02 1.466389e-01 1.674197e-04 2.368121e-02 9.199324e-01 -3.070243e-01 6.100357e-03 3.042726e-02
8.000000e+09 -3.229705e-02 -7.982407e-03
 8.825646e-01 -3.449797e-01 -3.229771e-02 -7.977695e-03
 2.977605e-04 2.404332e-02 4.732752e-02 1.483174e-01 6.151951e-03 3.082470e-02
 4.732987e-02 1.483214e-01 2.927352e-04 2.403957e-02 9.182225e-01 -3.105020e-01 6.159414e-03 3.082443e-02
8.100000e+09 -3.266959e-02 -7.640531e-03
 8.804232e-01 -3.484911e-01 -3.267032e-02 -7.636016e-03
 4.263408e-04 2.440121e-02 4.857561e-02 1.499915e-01 6.212551e-03 3.122206e-02
 4.857826e-02 1.499954e-01 4.212447e-04 2.439769e-02 9.164964e-01 -3.139686e-01 6.219999e-03 3.122144e-02
8.200000e+09 -3.303651e-02 -7.294648e-03
 8.782691e-01 -3.519883e-01 -3.303731e-02 -7.290326e-03
 5.580709e-04 2.475882e-02 4.983885e-02 1.516569e-01 6.274702e-03 3.161920e-02
 4.984180e-02 1.516608e-01 5.529250e-04 2.475552e-02 9.147543e-01 -3.174243e-01 6.282107e-03 3.161825e-02
8.300000e+09 -3.339786e-02 -6.944927e-03
 8.761024e-01 -3.554713e-01 -3.339876e-02 -6.940791e-03
 6.929298e-04 2.511614e-02 5.111717e-02 1.533138e-01 6.338398e-03 3.201610e-02
 5.112040e-02 1.533176e-01 6.877535e-04 2.511306e-02 9.129962e-01 -3.208688e-01 6.345730e-03 3.201482e-02
8.400000e+09 -3.375372e-02 -6.591531e-03
 8.739231e-01 -3.589402e-01 -3.375473e-02 -6.587575e-03
 8.308973e-04 2.547314e-02 5.241048e-02 1.549618e-01 6.403628e-03 3.241270e-02
 5.241400e-02 1.549656e-01 8.257085e-04 2.547027e-02 9.112221e-01 -3.243022e-01 6.410861e-03 3.241111e-02
8.500000e+09 -3.410417e-02 -6.234618e-03
 8.717310e-01 -3.623952e-01 -3.410530e-02 -6.230835e-03
 9.719535e-04 2.582982e-02 5.371870e-02 1.566010e-01 6.470381e-03 3.280896e-02
 5.372250e-02 1.566047e-01 9.667688e-04 2.582714e-02 9.094321e-01 -3.277244e-01 6.477491e-03 3.280709e-02
8.600000e+09 -3.444928e-02 -5.874340e-03
 8.695263e-01 -3.658362e-01 -3.445055e-02 -5.870722e-03
 1.116080e-03 2.618614e-02 5.504175e-02 1.582312e-01 6.538645e-03 3.320485e-02
 5.504583e-02 1.582348e-01 1.110914e-03 2.618365e-02 9.076263e-01 -3.311354e-01 6.545610e-03 3.320270e-02
8.700000e+09 -3.478913e-02 -5.510846e-03
 8.673088e-01 -3.692634e-01 -3.479056e-02 -5.507385e-03
 1.263258e-03 2.654209e-02 5.637956e-02 1.598524e-01 6.608406e-03 3.360032e-02
 5.638391e-02 1.598558e-01 1.258125e-03 2.653978e-02 9.058047e-01 -3.345351e-01 6.615208e-03 3.359792e-02
8.800000e+09 -3.512380e-02 -5.144280e-03
 8.650785e-01 -3.726767e-01 -3.512540e-02 -5.140967e-03
 1.413471e-03 2.689766e-02 5.773205e-02 1.614644e-01 6.679651e-03 3.399533e-02
 5.773666e-02 1.614676e-01 1.408384e-03 2.689552e-02 9.039674e-01 -3.379235e-01 6.686271e-03 3.399271e-02
8.900000e+09 -3.545337e-02 -4.774779e-03
 8.628355e-01 -3.760763e-01 -3.545515e-02 -4.771605e-03
 1.566703e-03 2.725282e-02 5.909913e-02 1.630670e-01 6.752364e-03 3.438985e-02
 5.910399e-02 1.630702e-01 1.561672e-03 2.725084e-02 9.021145e-01 -3.413006e-01 6.758787e-03 3.438701e-02
9.000000e+09 -3.577794e-02 -4.402478e-03
 8.605796e-01 -3.794622e-01 -3.577991e-02 -4.399434e-03
 1.722937e-03 2.760757e-02 6.048072e-02 1.646604e-01 6.826527e-03 3.478383e-02
 6.048583e-02 1.646633e-01 1.717973e-03 2.760573e-02 9.002459e-01 -3.446663e-01 6.832740e-03 3.478081e-02
9.100000e+09 -3.609758e-02 -4.027506e-03
 8.583109e-01 -3.828345e-01 -3.609975e-02 -4.024582e-03
 1.882160e-03 2.796189e-02 6.187676e-02 1.662442e-01 6.902123e-03 3.517724e-02
 6.188210e-02 1.662470e-01 1.877272e-03 2.796018e-02 8.983617e-01 -3.480206e-01 6.908115e-03 3.517405e-02
9.200000e+09 -3.641238e-02 -3.649988e-03
 8.560293e-01 -3.861931e-01 -3.641476e-02 -3.647174e-03
 2.044359e-03 2.831576e-02 6.328715e-02 1.678185e-01 6.979133e-03 3.557003e-02
 6.329272e-02 1.678211e-01 2.039554e-03 2.831417e-02 8.964621e-01 -3.513634e-01 6.984894e-03 3.556669e-02
9.300000e+09 -3.672242e-02 -3.270047e-03
 8.537348e-01 -3.895381e-01 -3.672503e-02 -3.267333e-03
 2.209519e-03 2.866918e-02 6.471183e-02 1.693831e-01 7.057536e-03 3.596216e-02
 6.471762e-02 1.693855e-01 2.204805e-03 2.866769e-02 8.945470e-01 -3.546947e-01 7.063059e-03 3.595871e-02
9.400000e+09 -3.702781e-02 -2.887799e-03
 8.514273e-01 -3.928696e-01 -3.703064e-02 -2.885173e-03
 2.377631e-03 2.902212e-02 6.615071e-02 1.709379e-01 7.137312e-03 3.635361e-02
 6.615671e-02 1.709401e-01 2.373013e-03 2.902072e-02 8.926164e-01 -3.580145e-01 7.142590e-03 3.635005e-02
9.500000e+09 -3.732862e-02 -2.503357e-03
 8.491069e-01 -3.961876e-01 -3.733170e-02 -2.500810e-03
 2.548682e-03 2.937458e-02 6.760371e-02 1.724829e-01 7.218437e-03 3.674432e-02
 6.760991e-02 1.724849e-01 2.544167e-03 2.937326e-02 8.906706e-01 -3.613226e-01 7.223466e-03 3.674069e-02
9.600000e+09 -3.762496e-02 -2.116830e-03
 8.467734e-01 -3.994920e-01 -3.762827e-02 -2.114351e-03
 2.722663e-03 2.972654e-02 6.907077e-02 1.740179e-01 7.300890e-03 3.713426e-02
 6.907715e-02 1.740197e-01 2.718255e-03 2.972529e-02 8.887094e-01 -3.646192e-01 7.305665e-03 3.713058e-02
9.700000e+09 -3.791690e-02 -1.728324e-03
 8.444270e-01 -4.027830e-01 -3.792046e-02 -1.725903e-03
 2.899565e-03 3.007799e-02 7.055179e-02 1.755428e-01 7.384644e-03 3.752340e-02
 7.055835e-02 1.755445e-01 2.895269e-03 3.007680e-02 8.867330e-01 -3.679040e-01 7.389165e-03 3.751969e-02
9.800000e+09 -3.820454e-02 -1.337941e-03
 8.420674e-01 -4.060605e-01 -3.820837e-02 -1.335566e-03
 3.079381e-03 3.042892e-02 7.204671e-02 1.770577e-01 7.469676e-03 3.791170e-02
 7.205343e-02 1.770591e-01 3.075199e-03 3.042778e-02 8.847414e-01 -3.711771e-01 7.473940e-03 3.790798e-02
9.900000e+09 -3.848798e-02 -9.457797e-04
 8.396948e-01 -4.093246e-01 -3.849207e-02 -9.434403e-04
 3.262102e-03 3.077931e-02 7.355544e-02 1.785623e-01 7.555957e-03 3.829912e-02
 7.356232e-02 1.785634e-01 3.258038e-03 3.077821e-02 8.827346e-01 -3.744385e-01 7.559966e-03 3.829541e-02
1.000000e+10 -3.876731e-02 -5.519344e-04
 8.373090e-01 -4.125752e-01 -3.877166e-02 -5.496196e-04
 3.447724e-03 3.112917e-02 7.507791e-02 1.800565e-01 7.643462e-03 3.868562e-02
 7.508494e-02 1.800575e-01 3.443780e-03 3.112808e-02 8.807128e-01 -3.776880e-01 7.647215e-03 3.868195e-02
1.010000e+10 -3.904262e-02 -1.564968e-04
 8.349100e-01 -4.158124e-01 -3.904725e-02 -1.541957e-04
 3.636240e-03 3.147846e-02 7.661404e-02 1.815404e-01 7.732161e-03 3.907118e-02
 7.662121e-02 1.815411e-01 3.632419e-03 3.147738e-02 8.786759e-01 -3.809257e-01 7.735661e-03 3.906755e-02
1.020000e+10 -3.931401e-02 2.404446e-04
 8.324979e-01 -4.190362e-01 -3.931891e-02 2.427431e-04
 3.827646e-03 3.182719e-02 7.816376e-02 1.830137e-01 7.822026e-03 3.945575e-02
 7.817106e-02 1.830142e-01 3.823949e-03 3.182611e-02 8.766240e-01 -3.841515e-01 7.825275e-03 3.945220e-02
1.030000e+10 -3.958157e-02 6.388048e-04
 8.300725e-01 -4.222466e-01 -3.958675e-02 6.411117e-04
 4.021940e-03 3.217533e-02 7.972699e-02 1.844764e-01 7.913025e-03 3.983930e-02
 7.973441e-02 1.844767e-01 4.018368e-03 3.217424e-02 8.745571e-01 -3.873654e-01 7.916028e-03 3.983584e-02
1.040000e+10 -3.984540e-02 1.038502e-03
 8.276338e-01 -4.254435e-01 -3.985086e-02 1.040828e-03
 4.219119e-03 3.252288e-02 8.130365e-02 1.859285e-01 8.005129e-03 4.022181e-02
 8.131118e-02 1.859285e-01 4.215672e-03 3.252176e-02 8.724754e-01 -3.905672e-01 8.007888e-03 4.021846e-02
1.050000e+10 -4.010559e-02 1.439456e-03